title="tecplot geometry and solution file"
variables = x y z rho u v w p
zone t="boundary 2 y_plane", solutiontime= 0.6100000E+02, strandid=0, i=378, j=724, f=feblock
 -0.650000000000E+01 -0.216653442383E+01 -0.650000000000E+01 -0.236886451614E+01  0.216693115234E+01 -0.273777021451E+00 -0.650000000000E+01
 -0.208945198519E+01 -0.199386318172E+01 -0.679787627074E+00  0.768903824784E+00  0.650000000000E+01  0.152302814578E+01  0.265801620135E+01
  0.198364257812E-03 -0.650000000000E+01 -0.278528426162E+01 -0.173473274921E+01 -0.140711140083E+01 -0.130893582666E+01 -0.129685222483E+01
 -0.155547323053E+01 -0.136391785313E+01 -0.865473426801E+00 -0.434964560686E+00  0.650000000000E+01  0.613767557100E+00  0.106087558919E+01
 -0.216693115234E+01  0.216653442383E+01  0.142956292932E+01  0.192111302582E+01  0.231354423089E+01  0.251854455810E+01  0.411982662795E+01
 -0.520690026800E-01  0.373732882328E+00 -0.299291373048E+00 -0.116067787459E+01 -0.125056800600E+01 -0.102122179790E+01 -0.108020063275E+01
 -0.932662416299E+00 -0.940741276387E+00 -0.108405903690E+01 -0.774160749250E+00 -0.103756763152E+01 -0.569708888647E+00 -0.238636415859E+00
  0.650000000000E+01  0.650000000000E+01  0.278880207298E+01  0.855550570781E+00  0.131909690990E+01  0.168602276960E+01  0.135272851499E+01
  0.195939873352E+01  0.202588190118E+01  0.286657724014E+01  0.199386318172E+01  0.268031557222E+01  0.246305601115E-01  0.312608340374E+00
  0.559190555198E+00 -0.198364257812E-03 -0.429491263940E+00 -0.877766441427E+00 -0.599695047619E+00 -0.863828053900E+00 -0.850571146403E+00
 -0.742513595224E+00 -0.666707241004E+00 -0.785146691681E+00 -0.727373190099E+00 -0.502702773243E+00 -0.796525003703E+00 -0.343111449170E+00
 -0.119128956014E+00  0.161289874135E+01  0.215027405996E+01  0.109008489538E+01  0.684441845274E+00  0.893672907422E+00  0.125273449667E+01
  0.620409179719E+00  0.155260815940E+01  0.124519604528E+01  0.169065837934E+01  0.170175659243E+01  0.215224736769E+01  0.172618890095E+01
  0.183257802969E+01  0.273744916044E+00  0.671518483126E-01  0.454028600029E+00 -0.462922382673E-01  0.381928190080E+00 -0.225639967183E+00
 -0.635082070806E+00 -0.407923297413E+00 -0.687955573469E+00 -0.662915783024E+00 -0.565466520818E+00 -0.506236586776E+00 -0.574159706674E+00
 -0.463612894732E+00 -0.552845640408E+00 -0.338652089020E+00 -0.576180717226E+00 -0.221681253781E+00 -0.542522720369E-01  0.176036870616E+01
  0.142135610809E+01  0.119708254877E+01  0.181580215763E+01  0.103768857272E+01  0.739492256580E+00  0.557234281258E+00  0.874953050166E+00
  0.875279026078E+00  0.141432094663E+01  0.118786648644E+01  0.153468054521E+01  0.139036432532E+01  0.150682204595E+01  0.154936770680E+01
  0.159156421034E+01  0.243997255217E+00  0.391415536146E+00  0.859406948295E-01  0.398731613456E-01  0.576244194397E+00  0.330381662165E+00
 -0.111429829540E+00 -0.462568530958E+00 -0.283016882639E+00 -0.524016885264E+00 -0.504345072763E+00 -0.430655346522E+00 -0.434147904932E+00
 -0.368608347225E+00 -0.449904117330E+00 -0.371166425377E+00 -0.352373653746E+00 -0.200866659431E+00 -0.407378415694E+00 -0.149793203198E+00
 -0.187716383282E-01  0.153315386678E+01  0.112474729832E+01  0.127404281635E+01  0.100880507468E+01  0.748500252825E+00  0.639813077594E+00
  0.483354072027E+00  0.864945657349E+00  0.885882327110E+00  0.709469970612E+00  0.125710483300E+01  0.133723559933E+01  0.109177928747E+01
  0.129609766228E+01  0.123381594586E+01  0.137074415293E+01  0.139241696596E+01  0.140144995929E+01  0.219428914220E+00  0.342926988792E+00
  0.918460083073E-01  0.744723633983E-01  0.283074402164E+00  0.478123638093E+00 -0.496923631173E-01 -0.337799434872E+00 -0.116951224957E+00
 -0.217987526154E+00 -0.401340476240E+00 -0.399100490949E+00 -0.285654506618E+00 -0.303468835732E+00 -0.289469671709E+00 -0.318587526021E+00
 -0.269979845675E+00 -0.246090508921E+00 -0.150047731914E+00 -0.319785004759E+00 -0.178867474467E-02  0.105561016409E+01  0.119511068484E+01
  0.955028482811E+00  0.739838866938E+00  0.641112842858E+00  0.542316453627E+00  0.424010547553E+00  0.839893739703E+00  0.803501232204E+00
  0.586608463043E+00  0.115993550063E+01  0.102582835129E+01  0.121472021750E+01  0.115439963646E+01  0.109487726784E+01  0.124612386912E+01
  0.124438438378E+01  0.302144256636E+00  0.193353817130E+00  0.873276361564E-01 -0.821791064630E-01  0.250352992547E+00  0.908227837261E-01
  0.400708086102E+00 -0.147362614620E-01 -0.248215569346E+00 -0.163144982902E+00 -0.298273816339E+00 -0.209820912704E+00 -0.191205929079E+00
 -0.230575960717E+00 -0.203888340866E+00 -0.205396750812E+00 -0.181165936054E+00 -0.152071907007E+00 -0.995123470689E-01  0.323153676106E-02
  0.101135094703E+01  0.106314439854E+01  0.912365581738E+00  0.724644190456E+00  0.642269862051E+00  0.562621917356E+00  0.456840177716E+00
  0.375548034198E+00  0.807545071885E+00  0.852435255692E+00  0.643655791348E+00  0.491459728274E+00  0.976751298220E+00  0.110426747916E+01
  0.107551353398E+01  0.103698422458E+01  0.112055988952E+01  0.262056404198E+00  0.169915163664E+00  0.883477523527E-01 -0.684666512919E-01
  0.349900114066E+00  0.223859833634E+00  0.954296010891E-01  0.404464771500E-02 -0.135364083436E+00 -0.879098761093E-01 -0.162762764878E+00
 -0.143403894925E+00 -0.125995998808E+00 -0.112290747136E+00 -0.104882496942E+00 -0.503550982826E-01  0.115380086842E-01  0.916110682031E+00
  0.974337807475E+00  0.875083795626E+00  0.719044333601E+00  0.643552439445E+00  0.571279053783E+00  0.491306837246E+00  0.424115378632E+00
  0.325414741442E+00  0.788000079172E+00  0.761114985513E+00  0.560937692914E+00  0.661896438918E+00  0.430451176707E+00  0.513987344415E-02
  0.933184930312E+00  0.102042620719E+01  0.997042845058E+00  0.979697035352E+00  0.970536803277E+00  0.226595843484E+00  0.146991181326E+00
  0.747331129715E-01 -0.553030268347E-01  0.307549589395E+00  0.198658179996E+00  0.920065334765E-01 -0.403017735703E-01 -0.443227969837E-01
 -0.808166856371E-01 -0.967885833490E-01 -0.503609102651E-01  0.194361474900E-01  0.718703017990E-02  0.838168238700E+00  0.901814405095E+00
  0.845701467263E+00  0.713409628396E+00  0.649488253299E+00  0.586529157388E+00  0.512697827117E+00  0.370606612766E+00  0.458930246000E+00
  0.276531220580E+00  0.772982196704E+00  0.724437861708E+00  0.504363584599E+00  0.609753787352E+00  0.378641231930E+00  0.844433708605E-01
  0.894042994596E+00  0.913617854951E+00  0.862039393716E+00  0.861126584348E+00  0.819381432194E+00  0.194035415526E+00  0.122879816602E+00
  0.580531757853E-01  0.268343094172E+00  0.175298534974E+00  0.110896639287E-01 -0.320383061799E-01  0.340460746502E-03 -0.430625134014E-01
 -0.480441970411E-03  0.704245193694E-01  0.322864960190E+00  0.798899944930E+00  0.819799246764E+00  0.703644899480E+00  0.709867029613E+00
  0.602848383737E+00  0.658236464039E+00  0.537833046878E+00  0.412783801688E+00  0.493229663972E+00  0.237827935623E+00  0.754106413876E+00
  0.434915145268E+00  0.544115937289E+00  0.632518897405E+00  0.330029684342E+00  0.149932604338E+00  0.791988583945E+00  0.784225853393E+00
  0.163758290150E+00  0.989460671067E-01  0.420645542622E-01  0.232848002385E+00  0.590630427694E-01  0.125408466245E+00  0.000000000000E+00
  0.430201295114E-01  0.767631286289E+00  0.694816659710E+00  0.692500650920E+00  0.562384004887E+00  0.621695263252E+00  0.673700004446E+00
  0.725138800637E+00  0.518996410665E+00  0.375581962391E+00  0.466308385141E+00  0.588788775716E+00  0.651037348960E+00  0.283272195457E+00
  0.197993394453E+00  0.728086899892E+00  0.710669909825E+00  0.100279689154E+00  0.165485785657E+00  0.659430171618E+00  0.622743239467E+00
  0.541335261029E+00  0.413716574620E+00  0.324214291333E+00  0.494668775654E+00  0.604943823918E+00  0.240037792526E+00  0.563620419255E+00
  0.000000000000E+00  0.000000000000E+00  0.000000000000E+00  0.000000000000E+00  0.000000000000E+00  0.000000000000E+00  0.000000000000E+00
  0.000000000000E+00  0.000000000000E+00  0.000000000000E+00  0.000000000000E+00  0.000000000000E+00  0.000000000000E+00  0.000000000000E+00
  0.000000000000E+00  0.000000000000E+00  0.000000000000E+00  0.000000000000E+00  0.000000000000E+00  0.000000000000E+00  0.000000000000E+00
  0.000000000000E+00  0.000000000000E+00  0.000000000000E+00  0.000000000000E+00  0.000000000000E+00  0.000000000000E+00  0.000000000000E+00
  0.000000000000E+00  0.000000000000E+00  0.000000000000E+00  0.000000000000E+00  0.000000000000E+00  0.000000000000E+00  0.000000000000E+00
  0.000000000000E+00  0.000000000000E+00  0.000000000000E+00  0.000000000000E+00  0.000000000000E+00  0.000000000000E+00  0.000000000000E+00
  0.000000000000E+00  0.000000000000E+00  0.000000000000E+00  0.000000000000E+00  0.000000000000E+00  0.000000000000E+00  0.000000000000E+00
  0.000000000000E+00  0.000000000000E+00  0.000000000000E+00  0.000000000000E+00  0.000000000000E+00  0.000000000000E+00  0.000000000000E+00
  0.000000000000E+00  0.000000000000E+00  0.000000000000E+00  0.000000000000E+00  0.000000000000E+00  0.000000000000E+00  0.000000000000E+00
  0.000000000000E+00  0.000000000000E+00  0.000000000000E+00  0.000000000000E+00  0.000000000000E+00  0.000000000000E+00  0.000000000000E+00
  0.000000000000E+00  0.000000000000E+00  0.000000000000E+00  0.000000000000E+00  0.000000000000E+00  0.000000000000E+00  0.000000000000E+00
  0.000000000000E+00  0.000000000000E+00  0.000000000000E+00  0.000000000000E+00  0.000000000000E+00  0.000000000000E+00  0.000000000000E+00
  0.000000000000E+00  0.000000000000E+00  0.000000000000E+00  0.000000000000E+00  0.000000000000E+00  0.000000000000E+00  0.000000000000E+00
  0.000000000000E+00  0.000000000000E+00  0.000000000000E+00  0.000000000000E+00  0.000000000000E+00  0.000000000000E+00  0.000000000000E+00
  0.000000000000E+00  0.000000000000E+00  0.000000000000E+00  0.000000000000E+00  0.000000000000E+00  0.000000000000E+00  0.000000000000E+00
  0.000000000000E+00  0.000000000000E+00  0.000000000000E+00  0.000000000000E+00  0.000000000000E+00  0.000000000000E+00  0.000000000000E+00
  0.000000000000E+00  0.000000000000E+00  0.000000000000E+00  0.000000000000E+00  0.000000000000E+00  0.000000000000E+00  0.000000000000E+00
  0.000000000000E+00  0.000000000000E+00  0.000000000000E+00  0.000000000000E+00  0.000000000000E+00  0.000000000000E+00  0.000000000000E+00
  0.000000000000E+00  0.000000000000E+00  0.000000000000E+00  0.000000000000E+00  0.000000000000E+00  0.000000000000E+00  0.000000000000E+00
  0.000000000000E+00  0.000000000000E+00  0.000000000000E+00  0.000000000000E+00  0.000000000000E+00  0.000000000000E+00  0.000000000000E+00
  0.000000000000E+00  0.000000000000E+00  0.000000000000E+00  0.000000000000E+00  0.000000000000E+00  0.000000000000E+00  0.000000000000E+00
  0.000000000000E+00  0.000000000000E+00  0.000000000000E+00  0.000000000000E+00  0.000000000000E+00  0.000000000000E+00  0.000000000000E+00
  0.000000000000E+00  0.000000000000E+00  0.000000000000E+00  0.000000000000E+00  0.000000000000E+00  0.000000000000E+00  0.000000000000E+00
  0.000000000000E+00  0.000000000000E+00  0.000000000000E+00  0.000000000000E+00  0.000000000000E+00  0.000000000000E+00  0.000000000000E+00
  0.000000000000E+00  0.000000000000E+00  0.000000000000E+00  0.000000000000E+00  0.000000000000E+00  0.000000000000E+00  0.000000000000E+00
  0.000000000000E+00  0.000000000000E+00  0.000000000000E+00  0.000000000000E+00  0.000000000000E+00  0.000000000000E+00  0.000000000000E+00
  0.000000000000E+00  0.000000000000E+00  0.000000000000E+00  0.000000000000E+00  0.000000000000E+00  0.000000000000E+00  0.000000000000E+00
  0.000000000000E+00  0.000000000000E+00  0.000000000000E+00  0.000000000000E+00  0.000000000000E+00  0.000000000000E+00  0.000000000000E+00
  0.000000000000E+00  0.000000000000E+00  0.000000000000E+00  0.000000000000E+00  0.000000000000E+00  0.000000000000E+00  0.000000000000E+00
  0.000000000000E+00  0.000000000000E+00  0.000000000000E+00  0.000000000000E+00  0.000000000000E+00  0.000000000000E+00  0.000000000000E+00
  0.000000000000E+00  0.000000000000E+00  0.000000000000E+00  0.000000000000E+00  0.000000000000E+00  0.000000000000E+00  0.000000000000E+00
  0.000000000000E+00  0.000000000000E+00  0.000000000000E+00  0.000000000000E+00  0.000000000000E+00  0.000000000000E+00  0.000000000000E+00
  0.000000000000E+00  0.000000000000E+00  0.000000000000E+00  0.000000000000E+00  0.000000000000E+00  0.000000000000E+00  0.000000000000E+00
  0.000000000000E+00  0.000000000000E+00  0.000000000000E+00  0.000000000000E+00  0.000000000000E+00  0.000000000000E+00  0.000000000000E+00
  0.000000000000E+00  0.000000000000E+00  0.000000000000E+00  0.000000000000E+00  0.000000000000E+00  0.000000000000E+00  0.000000000000E+00
  0.000000000000E+00  0.000000000000E+00  0.000000000000E+00  0.000000000000E+00  0.000000000000E+00  0.000000000000E+00  0.000000000000E+00
  0.000000000000E+00  0.000000000000E+00  0.000000000000E+00  0.000000000000E+00  0.000000000000E+00  0.000000000000E+00  0.000000000000E+00
  0.000000000000E+00  0.000000000000E+00  0.000000000000E+00  0.000000000000E+00  0.000000000000E+00  0.000000000000E+00  0.000000000000E+00
  0.000000000000E+00  0.000000000000E+00  0.000000000000E+00  0.000000000000E+00  0.000000000000E+00  0.000000000000E+00  0.000000000000E+00
  0.000000000000E+00  0.000000000000E+00  0.000000000000E+00  0.000000000000E+00  0.000000000000E+00  0.000000000000E+00  0.000000000000E+00
  0.000000000000E+00  0.000000000000E+00  0.000000000000E+00  0.000000000000E+00  0.000000000000E+00  0.000000000000E+00  0.000000000000E+00
  0.000000000000E+00  0.000000000000E+00  0.000000000000E+00  0.000000000000E+00  0.000000000000E+00  0.000000000000E+00  0.000000000000E+00
  0.000000000000E+00  0.000000000000E+00  0.000000000000E+00  0.000000000000E+00  0.000000000000E+00  0.000000000000E+00  0.000000000000E+00
  0.000000000000E+00  0.000000000000E+00  0.000000000000E+00  0.000000000000E+00  0.000000000000E+00  0.000000000000E+00  0.000000000000E+00
  0.000000000000E+00  0.000000000000E+00  0.000000000000E+00  0.000000000000E+00  0.000000000000E+00  0.000000000000E+00  0.000000000000E+00
  0.000000000000E+00  0.000000000000E+00  0.000000000000E+00  0.000000000000E+00  0.000000000000E+00  0.000000000000E+00  0.000000000000E+00
  0.000000000000E+00  0.000000000000E+00  0.000000000000E+00  0.000000000000E+00  0.000000000000E+00  0.000000000000E+00  0.000000000000E+00
  0.000000000000E+00  0.000000000000E+00  0.000000000000E+00  0.000000000000E+00  0.000000000000E+00  0.000000000000E+00  0.000000000000E+00
  0.000000000000E+00  0.000000000000E+00  0.000000000000E+00  0.000000000000E+00  0.000000000000E+00  0.000000000000E+00  0.000000000000E+00
  0.000000000000E+00  0.000000000000E+00  0.000000000000E+00  0.000000000000E+00  0.000000000000E+00  0.000000000000E+00  0.000000000000E+00
  0.000000000000E+00  0.000000000000E+00  0.000000000000E+00  0.000000000000E+00  0.000000000000E+00  0.000000000000E+00  0.000000000000E+00
  0.000000000000E+00  0.000000000000E+00  0.000000000000E+00  0.000000000000E+00  0.000000000000E+00  0.000000000000E+00  0.000000000000E+00
  0.000000000000E+00  0.000000000000E+00  0.000000000000E+00  0.000000000000E+00  0.000000000000E+00  0.000000000000E+00  0.000000000000E+00
  0.000000000000E+00  0.000000000000E+00  0.000000000000E+00  0.000000000000E+00  0.000000000000E+00  0.000000000000E+00  0.000000000000E+00
  0.650000000000E+01  0.650000000000E+01  0.216653442383E+01  0.324032984670E+01  0.650000000000E+01  0.274756334065E+01 -0.216693115234E+01
  0.157445000934E+01 -0.198364257812E-03  0.205598411188E+01  0.269993918491E+01  0.650000000000E+01  0.212456547474E+01  0.177743681340E+01
  0.199386318172E+01 -0.650000000000E+01 -0.239894504040E+01  0.683342316452E+00  0.123859449995E+01 -0.196654810279E+00 -0.476296445417E+00
 -0.978319080754E+00  0.151178200804E+00  0.144400103233E+01  0.153579281629E+01  0.216653442383E+01  0.159821922969E+01  0.162689898231E+01
 -0.650000000000E+01 -0.650000000000E+01  0.146580066178E+01  0.159142829374E+01  0.109996761037E+01  0.551267252466E+00  0.186485479982E+00
  0.133620184902E+01  0.128701650976E+01 -0.349731027533E+01 -0.221678112982E+01  0.711321648197E+00  0.100553696211E+01  0.710970111852E-01
 -0.293905189436E+00 -0.607098551227E+00 -0.988335857100E+00 -0.134013497309E+01  0.374568717174E+00  0.111798423311E+01  0.106318892916E+01
 -0.216693115234E+01 -0.650000000000E+01 -0.353999739006E+01  0.119415770985E+01 -0.250761277536E+01  0.114183250783E+01  0.105981607189E+01
  0.725775601167E+00  0.360519065980E+00  0.946440321811E-03 -0.198364257812E-03 -0.623274657915E+00  0.968379354421E+00  0.100680790238E+01
  0.106825059638E+01 -0.199386318172E+01 -0.153267262191E+01  0.697855855989E+00  0.812658643144E+00  0.167633803142E+00 -0.665193938001E-01
 -0.398579090412E+00 -0.194464595286E+00 -0.983492213606E+00 -0.685886151325E+00 -0.106781054877E+01  0.429316433269E+00  0.846133748309E+00
  0.808384143262E+00 -0.126866793506E+01 -0.792725886899E+00  0.981990683771E+00  0.864283201209E+00  0.833927210141E+00 -0.172224735505E+01
 -0.161389856638E+01  0.825585298032E+00  0.807873161859E+00  0.520073252660E+00  0.190117054425E+00 -0.372912779347E+00 -0.357083633897E-01
 -0.292626081474E+00  0.789195914005E+00  0.731234061080E+00  0.836908951842E+00 -0.133300272614E+01 -0.129594506974E+01 -0.106698465349E+01
  0.581272838514E+00  0.637757559150E+00  0.229599967596E+00  0.615568520190E-01 -0.330091932441E+00 -0.542839674713E+00 -0.425475222189E-01
 -0.172847732468E+00 -0.802052498315E+00 -0.864284258880E+00  0.356955264947E+00  0.670873846411E+00  0.626995939575E+00 -0.922425227139E+00
 -0.944719138246E+00 -0.129592788140E+01 -0.581242003237E+00  0.716548922211E+00  0.718108847776E+00  0.690246229518E+00  0.629523754176E+00
 -0.121033237666E+01  0.607364073863E+00  0.603779613728E+00  0.337872817445E+00  0.188614465596E+00  0.275616793436E-01 -0.161120091941E+00
 -0.398764817877E+00  0.613224355288E+00  0.655014924417E+00  0.556800996406E+00 -0.973456534305E+00 -0.108074399166E+01 -0.101061513966E+01
 -0.818144907037E+00  0.474770740116E+00  0.486398937389E+00  0.221297962532E+00  0.839550966742E-01 -0.480766835905E+00 -0.303790359282E+00
 -0.676321478755E+00 -0.252429472541E-01 -0.101135386878E+00 -0.209108475304E+00 -0.653426007991E+00  0.307862469736E+00  0.530922046909E+00
  0.484492850848E+00 -0.699559163882E+00 -0.920156858014E+00 -0.719106758373E+00  0.547146288525E+00  0.556505006824E+00  0.486274702642E+00
  0.537672261313E+00  0.483846372578E+00 -0.885482159192E+00 -0.870725733936E+00  0.440813736397E+00  0.323173254397E+00  0.422029626255E+00
  0.635982403414E-01  0.191418966612E+00 -0.869273020285E-01 -0.286868524990E+00 -0.492638074379E+00  0.467931332115E+00  0.504015501357E+00
  0.422006986191E+00 -0.736301256052E+00 -0.793513701528E+00 -0.844653337317E+00 -0.633549375123E+00  0.388817740473E+00  0.410555172395E+00
  0.341753201581E+00  0.176907213940E+00  0.851367233964E-01 -0.528740528988E+00 -0.327342312196E+00 -0.370992652435E-01  0.503903225934E-01
 -0.121859998217E+00 -0.216559169832E+00 -0.508329955324E+00  0.279544637938E+00  0.367618025841E+00 -0.713868434330E+00 -0.545702241765E+00
  0.391658533400E+00  0.427391963023E+00  0.367850060391E+00  0.419040086581E+00  0.406025425803E+00  0.355875403669E+00 -0.672682808434E+00
 -0.685443667767E+00  0.309633010530E+00  0.298695674378E+00 -0.571305429463E-01  0.753804193736E-01  0.202773442255E+00 -0.206145739596E+00
 -0.382222342502E+00  0.378016118662E+00  0.348571947093E+00  0.311385099056E+00  0.310515257984E+00 -0.617430507115E+00 -0.561383747439E+00
 -0.658464457157E+00 -0.489667944637E+00  0.214025185681E+00  0.247414200923E+00  0.138218314902E+00 -0.414481809859E+00 -0.313886623875E+00
  0.228904718224E-01 -0.577887331723E-01  0.116248469641E+00 -0.134318424524E+00 -0.212745076104E+00 -0.368094013190E+00  0.266725398619E+00
 -0.553379425337E+00 -0.416761285771E+00  0.277992372038E+00  0.319347651895E+00  0.269055091522E+00  0.307842067749E+00  0.317777382842E+00
  0.290754879054E+00  0.259810094456E+00 -0.538284750159E+00 -0.536090723763E+00 -0.537360664022E+00  0.198889785063E+00 -0.158224114188E+00
  0.135115215475E-02  0.106921652214E+00 -0.294337612696E+00  0.271982926614E+00  0.248389348547E+00  0.224041998801E+00  0.218836834975E+00
 -0.507242931275E+00 -0.471317387228E+00 -0.424787521813E+00 -0.372397158208E+00  0.164138729991E+00 -0.287885095478E+00  0.534784568447E-01
 -0.120175770289E-01 -0.774432932382E-01  0.997884020307E-01 -0.163212344898E+00 -0.225339619862E+00  0.186693420719E+00 -0.431327312199E+00
 -0.300436388488E+00  0.190737566390E+00  0.228746859858E+00  0.186084851719E+00  0.214211875992E+00  0.246558153314E+00  0.187764253925E+00
  0.197962987953E+00  0.176931228579E+00 -0.425085725575E+00 -0.417377035711E+00 -0.407017253645E+00 -0.406119821155E+00 -0.274329066282E+00
  0.116205978560E+00 -0.214109035293E+00 -0.132014290098E+00  0.321630547384E-01 -0.603348509800E-01  0.181129640369E+00  0.163471394952E+00
  0.145274761433E+00  0.146627622835E+00 -0.381060193775E+00 -0.350838290106E+00 -0.313253923339E+00 -0.155888253685E+00 -0.895399774337E-01
 -0.270211864787E-01  0.323589909958E-01  0.836572729028E-01 -0.184107177446E+00  0.117672011035E+00 -0.331421104402E+00 -0.206251133110E+00
  0.117773228195E+00  0.150176735718E+00  0.113429840281E+00  0.135103805303E+00  0.158904621582E+00  0.108855903205E+00  0.990081789330E-01
  0.113855593618E+00  0.106900862219E+00 -0.310214643394E+00 -0.303731827277E+00 -0.295976202550E+00 -0.291889725687E+00 -0.221680073703E+00
  0.578934049207E-01 -0.134970769441E+00 -0.107473534826E-01 -0.861272232942E-01  0.451876863980E-01  0.103213712996E+00  0.909263034756E-01
  0.773024883087E-01 -0.274058682015E+00 -0.249816399079E+00 -0.113731610761E+00 -0.333215021600E-01 -0.532547313227E-01  0.215146711137E-01
  0.531934309808E-01 -0.142448566442E+00  0.317493997881E-01 -0.233190982448E+00 -0.156052628764E+00 -0.215608514758E+00  0.846298083766E-01
  0.670425638776E-01  0.514527637889E-01  0.848311630983E-01  0.271550560439E-01  0.208038598820E-01  0.329063455171E-01  0.394325417444E-01
 -0.197272072778E+00 -0.230786928308E+00 -0.195690925678E+00 -0.197386008170E+00 -0.164910496499E+00 -0.171749827591E-01 -0.829751303647E-01
  0.310896886738E-01  0.273355159269E-01  0.212607640147E-01 -0.182433155386E+00 -0.775162519663E-01 -0.919717389882E-01  0.000000000000E+00
 -0.214015023515E-01 -0.162538987931E+00 -0.150601387058E+00  0.233819471232E-01  0.138345120443E-01  0.684364820092E-02  0.000000000000E+00
 -0.152565783210E-01 -0.156796244235E+00 -0.110781921289E+00 -0.101480665682E+00 -0.133339273316E+00 -0.112221141163E+00 -0.111426627453E+00
 -0.104813440415E+00 -0.100169538589E+00 -0.635763956121E-01 -0.274397765390E-01 -0.311610473542E-01 -0.509126018118E-01 -0.671237884799E-02
 -0.826099306584E-01 -0.270951802738E-01 -0.317017712805E-01 -0.206742942784E-01 -0.657795465536E-01 -0.329212498686E-01 -0.136989125939E-01
  0.100000346404E+01  0.999978071211E+00  0.100001359324E+01  0.999962901779E+00  0.999742732997E+00  0.999578670275E+00  0.100004515391E+01
  0.100002876058E+01  0.100020401811E+01  0.999690923084E+00  0.999126991804E+00  0.999895376016E+00  0.999611084274E+00  0.100021477196E+01
  0.998847138010E+00  0.100001317653E+01  0.100012678817E+01  0.100025783138E+01  0.100013946763E+01  0.100080860211E+01  0.100089379115E+01
  0.100048941154E+01  0.100067557609E+01  0.999979214518E+00  0.999300399630E+00  0.999821552741E+00  0.997591534088E+00  0.998533121284E+00
  0.100008010162E+01  0.100019062818E+01  0.999268514298E+00  0.999822774229E+00  0.100062993396E+01  0.999627089959E+00  0.999246347540E+00
  0.997952595951E+00  0.996535394520E+00  0.100027819544E+01  0.100041520675E+01  0.100044489404E+01  0.100028737436E+01  0.100106863856E+01
  0.100156724893E+01  0.100143117245E+01  0.100098149356E+01  0.100105626759E+01  0.100089112039E+01  0.999875021820E+00  0.998698970355E+00
  0.999992542298E+00  0.100004274671E+01  0.100016906325E+01  0.997092125248E+00  0.100036261103E+01  0.999781508620E+00  0.999479854085E+00
  0.100065174393E+01  0.100007428866E+01  0.998359877133E+00  0.997519329232E+00  0.999889912031E+00  0.996442889690E+00  0.994508500473E+00
  0.994670912732E+00  0.100073525659E+01  0.100105554008E+01  0.100064455423E+01  0.100042534479E+01  0.100153290638E+01  0.100176691828E+01
  0.100224891833E+01  0.100278669451E+01  0.100142264700E+01  0.100194707943E+01  0.100176140382E+01  0.100127366510E+01  0.999677724040E+00
  0.997875123328E+00  0.100045414435E+01  0.100013588555E+01  0.998341332231E+00  0.994298007678E+00  0.997030631803E+00  0.100048076949E+01
  0.100053679499E+01  0.100002543000E+01  0.999651396012E+00  0.100120214901E+01  0.999242291284E+00  0.100020288347E+01  0.998008973543E+00
  0.100081288595E+01  0.991273827693E+00  0.994420892456E+00  0.991273771527E+00  0.100131858898E+01  0.100070502661E+01  0.100200603415E+01
  0.100110469880E+01  0.100087753761E+01  0.100208767770E+01  0.100259086981E+01  0.100343398639E+01  0.100321648366E+01  0.100349071499E+01
  0.100490418835E+01  0.100223140967E+01  0.100263462516E+01  0.100218615886E+01  0.999584114713E+00  0.997111735720E+00  0.100085173154E+01
  0.100119463205E+01  0.100082677140E+01  0.100116836935E+01  0.998917134744E+00  0.994253720754E+00  0.989963929468E+00  0.997212468253E+00
  0.100057965806E+01  0.100051801732E+01  0.100028864182E+01  0.100145547598E+01  0.100077119286E+01  0.998446349630E+00  0.100053319887E+01
  0.100187067857E+01  0.987535829387E+00  0.986687732040E+00  0.992271496989E+00  0.100191981229E+01  0.100022503994E+01  0.100053700815E+01
  0.100309029138E+01  0.100193491372E+01  0.100192452531E+01  0.100323766569E+01  0.100400776554E+01  0.100415846429E+01  0.100507677950E+01
  0.100343370100E+01  0.100511987058E+01  0.100711726737E+01  0.100716241519E+01  0.100430120527E+01  0.100360614046E+01  0.100005576345E+01
  0.996725288384E+00  0.100128909719E+01  0.100132564716E+01  0.100186714333E+01  0.999781063658E+00  0.993813762196E+00  0.989055976801E+00
  0.983720652108E+00  0.998501493763E+00  0.100092415903E+01  0.100012863601E+01  0.100196730309E+01  0.100218285826E+01  0.100174183711E+01
  0.998865434673E+00  0.100232896249E+01  0.100015839301E+01  0.100308382750E+01  0.100214125216E+01  0.982658328584E+00  0.980353658460E+00
  0.990166020768E+00  0.100250414120E+01  0.100044819036E+01  0.999576507826E+00  0.100452355241E+01  0.100308702178E+01  0.100143498013E+01
  0.100428507233E+01  0.100497189467E+01  0.100572290778E+01  0.100506931162E+01  0.100707276572E+01  0.100991241228E+01  0.100827467634E+01
  0.101066289621E+01  0.101041782862E+01  0.100643003517E+01  0.100484714955E+01  0.997320827398E+00  0.100199671404E+01  0.100269632429E+01
  0.100160909108E+01  0.994647263434E+00  0.988567647532E+00  0.981883120707E+00  0.974655187199E+00  0.100048179300E+01  0.100089549322E+01
  0.998783919252E+00  0.100357190616E+01  0.100383796883E+01  0.100033873687E+01  0.100037025860E+01  0.100478826667E+01  0.100383764617E+01
  0.100331756774E+01  0.971719653013E+00  0.976910198460E+00  0.988675200457E+00  0.100371027257E+01  0.100006685510E+01  0.100352306093E+01
  0.998266951324E+00  0.100650463206E+01  0.100760094561E+01  0.100770686977E+01  0.100782469770E+01  0.100744471548E+01  0.100998935840E+01
  0.101290404220E+01  0.101542983335E+01  0.101241511323E+01  0.101568856368E+01  0.101475303916E+01  0.100999366014E+01  0.100013138773E+01
  0.100291997618E+01  0.100407319495E+01  0.100454228757E+01  0.996233139319E+00  0.989746593280E+00  0.980085161221E+00  0.969921699735E+00
  0.962807327698E+00  0.100355629301E+01  0.100221015053E+01  0.998504621025E+00  0.996315816747E+00  0.100590365350E+01  0.100584674040E+01
  0.100048476557E+01  0.100347778659E+01  0.100510072951E+01  0.961498645650E+00  0.969906122424E+00  0.985006032456E+00  0.100950777038E+01
  0.996477557241E+00  0.999281520588E+00  0.100473704493E+01  0.100935102983E+01  0.101345187294E+01  0.101370445419E+01  0.101795892925E+01
  0.102214432604E+01  0.102433747653E+01  0.101986990530E+01  0.102103239370E+01  0.101916491504E+01  0.100464393830E+01  0.100402472519E+01
  0.100636351207E+01  0.100737443143E+01  0.100013524387E+01  0.992406383756E+00  0.978920149525E+00  0.967463832184E+00  0.952819571335E+00
  0.947390060777E+00  0.100828912894E+01  0.100168083962E+01  0.994533284516E+00  0.998754660844E+00  0.992470966365E+00  0.101478270355E+01
  0.100578100035E+01  0.100707808508E+01  0.100707796523E+01  0.100234681374E+01  0.100416573299E+01  0.949684201813E+00  0.959864157706E+00
  0.987064498878E+00  0.101730447425E+01  0.993429529803E+00  0.998733864421E+00  0.100734545736E+01  0.102689155290E+01  0.103920139081E+01
  0.103672618203E+01  0.102967833097E+01  0.102966678049E+01  0.102221091453E+01  0.101802591654E+01  0.100553393223E+01  0.100937087245E+01
  0.100916894315E+01  0.100585965416E+01  0.997147447846E+00  0.979922675023E+00  0.963117501634E+00  0.930157694728E+00  0.941828869104E+00
  0.929408650899E+00  0.101260141271E+01  0.100325786633E+01  0.989065058535E+00  0.995812502246E+00  0.986334843627E+00  0.101145341451E+01
  0.100555203589E+01  0.100996134622E+01  0.100619737962E+01  0.101065812498E+01  0.100942154687E+01  0.929947424369E+00  0.940485722167E+00
  0.989517950284E+00  0.989617511163E+00  0.998651582493E+00  0.103602634123E+01  0.105580143012E+01  0.106196382653E+01  0.105036887434E+01
  0.104077179595E+01  0.101907145274E+01  0.902027664915E+00  0.100874867697E+01  0.101252745346E+01  0.100580445240E+01  0.101297201942E+01
  0.982161567470E+00  0.100930027245E+01  0.961458573138E+00  0.913524950739E+00  0.936082030160E+00  0.904541194835E+00  0.101928898874E+01
  0.978323820759E+00  0.988958273256E+00  0.998945100527E+00  0.977557946787E+00  0.998103154437E+00  0.101232799036E+01  0.101541372041E+01